     192
 i =        0, time =        0.000, E =     -1104.8692207002
  O        18.1191148712        7.2268733927        0.8927133628
  H        17.1846357123        7.2754553278        1.1743134899
  H        18.5710199035        6.5540543071        1.4142357192
  O        18.3171922756       -6.7791416465       15.5916206690
  H        18.3477875753       -7.4343480398       16.3517897676
  H        18.4582942666       -5.9495529899       16.0729361736
  O         2.6455578212        2.6334984503       14.1868138998
  H         2.7463073833        3.4542905531       14.6977829760
  H         2.5874100164        1.9508244284       14.8913507247
  O         9.0885150103       11.9550590719       22.0174077292
  H         8.1465286113       11.8003610326       22.1575827452
  H         9.4630977042       12.5196431934       22.7627564377
  O        10.0005516452        1.0072420328       -0.7976633020
  H         9.2559591171        0.6406119714       -0.2252446228
  H        10.7519287952        0.5267206907       -0.4010078256
  O        15.1528170392       -1.2525890706       14.6696073523
  H        14.1791856124       -1.0770436555       14.6532753428
  H        15.6064752536       -0.5054212987       15.1452096329
  O        12.9815665396        2.3405776052       12.5590144528
  H        13.7659626921        2.5048253336       13.2092159501
  H        12.4391693214        3.1443029472       12.7931141957
  O        14.2488406428        5.8386672924        0.7942327183
  H        14.6408278429        5.9052730369        1.6437132458
  H        14.4051531311        6.7642584080        0.4381553586
  O        14.4972596918       11.1240253732       17.8834950992
  H        14.9408643344       10.2982697699       17.5464356755
  H        14.3536451863       10.9445189895       18.8458461973
  O         3.5010511311        0.8043047866        4.0221855148
  H         4.3499347131        1.2088933013        4.3587215699
  H         3.1820125586        0.2113847822        4.7283523813
  O        14.2791230710        2.5790701206        9.9608759898
  H        13.8772976775        2.7191687147       10.8668863896
  H        15.0038068350        3.2695566736       10.1672645085
  O        -2.2569899893        1.8111384908       15.3149858539
  H        -2.8792393805        2.0993711431       16.0307438481
  H        -1.4487583574        2.0354489343       15.7740373422
  O         3.7852673260        4.3580741873       11.0525340124
  H         4.6441358025        4.1115894571       11.5537725544
  H         3.1855132759        4.6948033216       11.7526850614
  O         6.8146950841       12.3286390175        6.3002235603
  H         7.6576866175       12.6107267753        6.6122355203
  H         6.2263540336       13.1113756881        6.6544286168
  O         0.2276835275       -4.4097306659       15.0427436338
  H         0.4384902804       -5.3832855372       15.0811229913
  H         1.0340871772       -4.0167379410       14.6096600067
  O         8.7361555041       -0.2477173915        1.4549285281
  H         9.1804204719       -1.0616278198        1.8091337827
  H         9.2364449585        0.3297623527        2.0699405071
  O         5.1571043874       -4.0668840066        7.0506505403
  H         5.1471632455       -4.6494320105        7.7842181119
  H         5.6580044143       -3.2626271657        7.3453217444
  O        14.4875768795        4.9986751477        6.2452958191
  H        14.2792665775        4.0851257322        6.5871264247
  H        15.2619334841        5.3011133668        6.7517441654
  O         7.1898129331        9.4511189382       12.5886573938
  H         8.0397479979        9.0229208231       12.2083035322
  H         6.8699108264        8.6588519477       13.0836050180
  O        -0.3544486103       12.3061380370        0.5510948031
  H         0.1618255307       13.2219572800        0.5558164289
  H        -0.3770279045       12.0105072760        1.5289065092
  O        15.5439446323       -3.8741874298        5.2017629670
  H        16.1587037209       -3.9421018874        5.9959759324
  H        14.6899712150       -4.1195819497        5.6021357201
  O         8.9991878756        8.0114609314       16.7227501403
  H         7.9599639920        8.1481609900       16.7487752821
  H         9.1538770192        8.2122385399       17.6961048772
  O        12.8031697902       -4.8050444694       18.0088372669
  H        12.3414745843       -5.2940059882       18.7024101297
  H        12.1201281041       -4.3544402365       17.5112268213
  O        17.9962079589        3.6834055459        0.6036898483
  H        18.8558419705        4.0516200250        0.4314977481
  H        17.6129248412        4.1381362950        1.3529668518
  O         6.2721985496       -1.6222894691       10.5702125902
  H         5.2539347458       -1.7476133599       10.4740132599
  H         6.4572410911       -2.2460237799       11.3442253766
  O        11.7414398418        6.7692129348        8.1188478132
  H        10.8638113317        7.1664022265        8.4405864711
  H        11.6798001052        5.8198017492        8.3600418771
  O        11.1081266925        2.5769560293        6.2938317826
  H        11.3967395722        3.2734892559        7.0012973967
  H        11.8596460419        2.3772031066        5.6698892727
  O         9.7820129457       -1.3007427235        4.3807598814
  H         9.4904815534       -2.2146721895        4.4165843982
  H         9.6248617804       -0.9060148769        5.2912148630
  O         8.5100588161        2.8385879163       17.6264861126
  H         9.2878956923        2.7760248162       18.1768555866
  H         8.5555498009        3.7801933014       17.2642243805
  O         8.8856511224       -3.8233897386       19.3681752995
  H         9.6369083592       -3.7167190959       19.9953266517
  H         8.1644351748       -3.2523180355       19.6725018551
  O         6.4048938562        8.3313933797       16.9350970506
  H         6.1483444758        8.0515929142       17.7878353147
  H         6.1012858004        9.2904322869       16.7706249247
  O        19.1851177916       11.0698830137       16.0832004271
  H        19.3358807177       11.4975142098       16.9306009044
  H        20.1099138533       11.2060204089       15.7938958869
  O         4.0531556411        5.5536114984        8.2655037270
  H         4.0679647575        5.0033518734        9.0540059370
  H         3.5389912767        6.3202817110        8.5056144308
  O        14.3654541991        7.6045197780       21.4439483338
  H        13.5556997032        7.2998775548       21.0393742236
  H        14.1835255595        7.7786390057       22.4021944674
  O        12.5793234889       10.2298625615       11.2145140470
  H        12.0349488747       10.8540240341       11.7608970006
  H        13.3880247770       10.6521982359       10.9700864886
  O        13.2899826328      -10.2681762826        4.3262172031
  H        12.9599006797      -11.1834488701        4.1404183547
  H        13.9663983725      -10.2711125163        5.0430053632
  O         9.3344916036       -4.5637469558       11.8234512427
  H         9.7519805198       -4.1174080533       11.0430598231
  H         9.7775620097       -4.1994970029       12.6882151410
  O         9.5553174849        0.3912450853        6.9820449080
  H        10.2411092400        1.1907946535        7.0875193743
  H         9.5749364918       -0.0516651251        7.9505708146
  O        -2.2340333510       -3.1839921361        9.4172152887
  H        -2.6505658202       -2.2512757153        9.4462760786
  H        -1.2786561766       -3.0041739820        9.5089203231
  O         6.3494434483        4.7579733182       18.4236211180
  H         7.2231861753        5.1686355882       18.6445579646
  H         5.7468481638        5.1735082667       19.0393373258
  O         8.1760030094        4.8651939573        9.3303273114
  H         7.3990667617        5.2286810251        9.7794037527
  H         8.8822498880        4.5994825775        9.9942099311
  O         4.0653604716       -2.2332919355       12.5198003606
  H         3.5698538463       -1.7069010412       13.1469136016
  H         5.0300428028       -1.9255087539       12.6426693939
  O         8.0535253489       -7.3895792207       12.9041645625
  H         8.7788372844       -7.3317472281       13.5416493710
  H         8.2963828406       -6.7590684560       12.1737751331
  O        14.5944027043      -14.4748990076        8.2010579634
  H        14.5031434587      -15.3703193657        8.4361544055
  H        14.9598227442      -13.9018685443        8.9260661294
  O        14.7611930286        2.1825550000        7.0609725666
  H        15.7159725122        1.9278348288        6.9379169988
  H        14.6276591565        1.9372964321        8.0019228946
  O        14.6221671577       -4.1620186178       11.8721592520
  H        15.5262286722       -3.6904566842       11.8760725126
  H        13.9809201372       -3.4489713646       11.7746326606
  O        12.1230778664        5.1353164927        3.7775355780
  H        12.6058309274        4.2941546042        3.8656843173
  H        12.5986586723        5.7157838517        4.4061329898
  O        17.7409086791        1.7887000678        7.0639024978
  H        17.9292968293        2.6591139053        6.6869204572
  H        17.8191250723        1.9377079344        8.0903506873
  O         6.1951772442        1.8516859249        3.7383345850
  H         6.9150028349        2.2584255930        4.3405432288
  H         6.3578274133        2.2357243847        2.8426978580
  O         5.8130473719       12.2388031589       25.9981173187
  H         5.5786542081       12.6240038109       26.8792214507
  H         6.7463254048       11.9395692084       26.0792307262
  O        15.4331744083       -7.5308257909        3.3707209648
  H        15.0605051227       -7.3409114047        4.2856996185
  H        16.3562076566       -7.3063714336        3.4088947370
  O         6.8667288701       -2.2085426482        7.8405083087
  H         7.0811794705       -1.3426910396        7.3716477268
  H         6.7040687796       -2.0604934407        8.8388769209
  O        15.8114942930        7.9440784864       14.6340098767
  H        15.8263494505        8.8971083780       14.5135108719
  H        15.7450698253        7.8044849565       15.5911140193
  O        22.5971112047       -3.3319246781      -10.6711993293
  H        23.4350937788       -3.6281977846      -10.2400867382
  H        22.0312942284       -3.6956070472       -9.8714179598
  O         0.0194153897       -0.4700121058        3.7108736852
  H         0.5514993649       -0.9637666511        4.4427268414
  H        -0.9944598763       -0.7199925076        3.9249916729
  O        16.7571747810        1.0750604892       11.6812213503
  H        16.2879416255        1.6194681300       12.3324801259
  H        17.3041302021        0.4066924798       12.1895943707
  O        12.0718905206        4.1128002302        8.5453485973
  H        12.8662710194        3.6025486443        8.7981773388
  H        11.4282853708        3.9737460178        9.3228746705
  O         6.1718219809        2.2060384824        9.4479511456
  H         6.9448488460        2.6984302345        9.7196192562
  H         5.7086848985        1.7940205842       10.2233116295
  O        10.1136834472        3.6876676648       10.7964883015
  H         9.9827724098        2.7525307464       11.0385751002
  H        10.5036577195        4.0223325016       11.6210065641
  O         2.5107736403       -0.4684151946       10.3746881295
  H         3.1813517058       -0.4829729085       11.0990209225
  H         2.3094891323        0.5043084902       10.2922517578
  O         8.9099030007       -6.7605643423        6.8069647264
  H         8.7392562704       -5.7375040673        6.8310412162
  H         8.6984556103       -6.9870863674        7.8282392092
  O         6.5987490078        6.9165760234       10.5181947901
  H         6.1558497501        7.3252446668       11.3211845690
  H         7.3861618952        7.4233322102       10.3476729800
  O         9.5519183641        5.6194266266        2.7211505626
  H         9.3974987860        6.5058132704        3.1337520842
  H        10.3316610265        5.2532613844        3.2617742118
  O        11.4753441713       -7.4983601031       12.8858331496
  H        12.3585226891       -7.0516606529       13.0564281592
  H        11.0225655569       -7.3085892002       13.7463032917
